TITLE = "MESH AND SOLUTIONS" 
VARIABLES = "X", "Y", "RANK", "HLEVEL", "VAR", "KEY", 
ZONE T= "IEL     0",  I=2, J=2, SOLUTIONTIME=0.20000, DATAPACKING = POINT
0.00000  0.00000  0  3  1  9
0.00000  0.06250  0  3  1  9
0.06250  0.00000  0  3  1  9
0.06250  0.06250  0  3  1  9
ZONE T= "IEL     1",  I=2, J=2, SOLUTIONTIME=0.20000, DATAPACKING = POINT
0.00000  0.06250  0  4  1  49
0.00000  0.09375  0  4  1  49
0.03125  0.06250  0  4  1  49
0.03125  0.09375  0  4  1  49
ZONE T= "IEL     2",  I=2, J=2, SOLUTIONTIME=0.20000, DATAPACKING = POINT
0.00000  0.09375  0  4  1  95
0.00000  0.12500  0  4  1  95
0.03125  0.09375  0  4  1  95
0.03125  0.12500  0  4  1  95
ZONE T= "IEL     3",  I=2, J=2, SOLUTIONTIME=0.20000, DATAPACKING = POINT
0.03125  0.09375  0  4  0  157
0.03125  0.12500  0  4  0  157
0.06250  0.09375  0  4  0  157
0.06250  0.12500  0  4  0  157
ZONE T= "IEL     4",  I=2, J=2, SOLUTIONTIME=0.20000, DATAPACKING = POINT
0.03125  0.06250  0  4  0  82
0.03125  0.09375  0  4  0  82
0.06250  0.06250  0  4  0  82
0.06250  0.09375  0  4  0  82
ZONE T= "IEL     5",  I=2, J=2, SOLUTIONTIME=0.20000, DATAPACKING = POINT
0.06250  0.06250  0  3  0  31
0.06250  0.12500  0  3  0  31
0.12500  0.06250  0  3  0  31
0.12500  0.12500  0  3  0  31
ZONE T= "IEL     6",  I=2, J=2, SOLUTIONTIME=0.20000, DATAPACKING = POINT
0.09375  0.03125  0  4  1  124
0.09375  0.06250  0  4  1  124
0.12500  0.03125  0  4  1  124
0.12500  0.06250  0  4  1  124
ZONE T= "IEL     7",  I=2, J=2, SOLUTIONTIME=0.20000, DATAPACKING = POINT
0.06250  0.03125  0  4  0  70
0.06250  0.06250  0  4  0  70
0.09375  0.03125  0  4  0  70
0.09375  0.06250  0  4  0  70
ZONE T= "IEL     8",  I=2, J=2, SOLUTIONTIME=0.20000, DATAPACKING = POINT
0.06250  0.00000  0  4  0  32
0.06250  0.03125  0  4  0  32
0.09375  0.00000  0  4  0  32
0.09375  0.03125  0  4  0  32
ZONE T= "IEL     9",  I=2, J=2, SOLUTIONTIME=0.20000, DATAPACKING = POINT
0.09375  0.00000  0  4  1  59
0.09375  0.03125  0  4  1  59
0.12500  0.00000  0  4  1  59
0.12500  0.03125  0  4  1  59
ZONE T= "IEL    10",  I=2, J=2, SOLUTIONTIME=0.20000, DATAPACKING = POINT
0.12500  0.00000  0  3  1  24
0.12500  0.06250  0  3  1  24
0.18750  0.00000  0  3  1  24
0.18750  0.06250  0  3  1  24
ZONE T= "IEL    11",  I=2, J=2, SOLUTIONTIME=0.20000, DATAPACKING = POINT
0.18750  0.00000  0  3  1  48
0.18750  0.06250  0  3  1  48
0.25000  0.00000  0  3  1  48
0.25000  0.06250  0  3  1  48
ZONE T= "IEL    12",  I=2, J=2, SOLUTIONTIME=0.20000, DATAPACKING = POINT
0.18750  0.06250  0  3  1  108
0.18750  0.12500  0  3  1  108
0.25000  0.06250  0  3  1  108
0.25000  0.12500  0  3  1  108
ZONE T= "IEL    13",  I=2, J=2, SOLUTIONTIME=0.20000, DATAPACKING = POINT
0.12500  0.06250  0  3  1  58
0.12500  0.12500  0  3  1  58
0.18750  0.06250  0  3  1  58
0.18750  0.12500  0  3  1  58
ZONE T= "IEL    14",  I=2, J=2, SOLUTIONTIME=0.20000, DATAPACKING = POINT
0.12500  0.12500  0  2  0  23
0.12500  0.25000  0  2  0  23
0.25000  0.12500  0  2  0  23
0.25000  0.25000  0  2  0  23
ZONE T= "IEL    15",  I=2, J=2, SOLUTIONTIME=0.20000, DATAPACKING = POINT
0.00000  0.12500  0  2  1  12
0.00000  0.25000  0  2  1  12
0.12500  0.12500  0  2  1  12
0.12500  0.25000  0  2  1  12
ZONE T= "IEL    16",  I=2, J=2, SOLUTIONTIME=0.20000, DATAPACKING = POINT
0.00000  0.25000  0  1  1  7
0.00000  0.50000  0  1  1  7
0.25000  0.25000  0  1  1  7
0.25000  0.50000  0  1  1  7
ZONE T= "IEL    17",  I=2, J=2, SOLUTIONTIME=0.20000, DATAPACKING = POINT
0.25000  0.25000  0  4  0  11030
0.25000  0.28125  0  4  0  11030
0.28125  0.25000  0  4  0  11030
0.28125  0.28125  0  4  0  11030
ZONE T= "IEL    18",  I=2, J=2, SOLUTIONTIME=0.20000, DATAPACKING = POINT
0.25000  0.28125  0  4  0  13865
0.25000  0.31250  0  4  0  13865
0.28125  0.28125  0  4  0  13865
0.28125  0.31250  0  4  0  13865
ZONE T= "IEL    19",  I=2, J=2, SOLUTIONTIME=0.20000, DATAPACKING = POINT
0.28125  0.28125  0  4  1  17024
0.28125  0.31250  0  4  1  17024
0.31250  0.28125  0  4  1  17024
0.31250  0.31250  0  4  1  17024
ZONE T= "IEL    20",  I=2, J=2, SOLUTIONTIME=0.20000, DATAPACKING = POINT
0.28125  0.25000  0  4  1  13699
0.28125  0.28125  0  4  1  13699
0.31250  0.25000  0  4  1  13699
0.31250  0.28125  0  4  1  13699
ZONE T= "IEL    21",  I=2, J=2, SOLUTIONTIME=0.20000, DATAPACKING = POINT
0.31250  0.25000  0  4  1  16840
0.31250  0.28125  0  4  1  16840
0.34375  0.25000  0  4  1  16840
0.34375  0.28125  0  4  1  16840
ZONE T= "IEL    22",  I=2, J=2, SOLUTIONTIME=0.20000, DATAPACKING = POINT
0.34375  0.25000  0  4  0  20507
0.34375  0.28125  0  4  0  20507
0.37500  0.25000  0  4  0  20507
0.37500  0.28125  0  4  0  20507
ZONE T= "IEL    23",  I=2, J=2, SOLUTIONTIME=0.20000, DATAPACKING = POINT
0.34375  0.28125  0  4  0  24980
0.34375  0.31250  0  4  0  24980
0.37500  0.28125  0  4  0  24980
0.37500  0.31250  0  4  0  24980
ZONE T= "IEL    24",  I=2, J=2, SOLUTIONTIME=0.20000, DATAPACKING = POINT
0.31250  0.28125  0  4  1  20710
0.31250  0.31250  0  4  1  20710
0.34375  0.28125  0  4  1  20710
0.34375  0.31250  0  4  1  20710
ZONE T= "IEL    25",  I=2, J=2, SOLUTIONTIME=0.20000, DATAPACKING = POINT
0.31250  0.31250  0  3  1  2019
0.31250  0.37500  0  3  1  2019
0.37500  0.31250  0  3  1  2019
0.37500  0.37500  0  3  1  2019
ZONE T= "IEL    26",  I=2, J=2, SOLUTIONTIME=0.20000, DATAPACKING = POINT
0.25000  0.31250  0  3  0  1434
0.25000  0.37500  0  3  0  1434
0.31250  0.31250  0  3  0  1434
0.31250  0.37500  0  3  0  1434
ZONE T= "IEL    27",  I=2, J=2, SOLUTIONTIME=0.20000, DATAPACKING = POINT
0.25000  0.37500  0  2  0  212
0.25000  0.50000  0  2  0  212
0.37500  0.37500  0  2  0  212
0.37500  0.50000  0  2  0  212
ZONE T= "IEL    28",  I=2, J=2, SOLUTIONTIME=0.20000, DATAPACKING = POINT
0.37500  0.37500  0  3  1  3831
0.37500  0.43750  0  3  1  3831
0.43750  0.37500  0  3  1  3831
0.43750  0.43750  0  3  1  3831
ZONE T= "IEL    29",  I=2, J=2, SOLUTIONTIME=0.20000, DATAPACKING = POINT
0.37500  0.43750  0  3  1  5154
0.37500  0.50000  0  3  1  5154
0.43750  0.43750  0  3  1  5154
0.43750  0.50000  0  3  1  5154
ZONE T= "IEL    30",  I=2, J=2, SOLUTIONTIME=0.20000, DATAPACKING = POINT
0.43750  0.43750  0  3  0  6673
0.43750  0.50000  0  3  0  6673
0.50000  0.43750  0  3  0  6673
0.50000  0.50000  0  3  0  6673
ZONE T= "IEL    31",  I=2, J=2, SOLUTIONTIME=0.20000, DATAPACKING = POINT
0.43750  0.37500  0  3  0  5053
0.43750  0.43750  0  3  0  5053
0.50000  0.37500  0  3  0  5053
0.50000  0.43750  0  3  0  5053
ZONE T= "IEL    32",  I=2, J=2, SOLUTIONTIME=0.20000, DATAPACKING = POINT
0.46875  0.34375  0  4  1  67165
0.46875  0.37500  0  4  1  67165
0.50000  0.34375  0  4  1  67165
0.50000  0.37500  0  4  1  67165
ZONE T= "IEL    33",  I=2, J=2, SOLUTIONTIME=0.20000, DATAPACKING = POINT
0.46875  0.31250  0  4  1  57634
0.46875  0.34375  0  4  1  57634
0.50000  0.31250  0  4  1  57634
0.50000  0.34375  0  4  1  57634
ZONE T= "IEL    34",  I=2, J=2, SOLUTIONTIME=0.20000, DATAPACKING = POINT
0.43750  0.31250  0  4  0  49459
0.43750  0.34375  0  4  0  49459
0.46875  0.31250  0  4  0  49459
0.46875  0.34375  0  4  0  49459
ZONE T= "IEL    35",  I=2, J=2, SOLUTIONTIME=0.20000, DATAPACKING = POINT
0.43750  0.34375  0  4  0  57974
0.43750  0.37500  0  4  0  57974
0.46875  0.34375  0  4  0  57974
0.46875  0.37500  0  4  0  57974
ZONE T= "IEL    36",  I=2, J=2, SOLUTIONTIME=0.20000, DATAPACKING = POINT
0.37500  0.31250  0  3  0  2778
0.37500  0.37500  0  3  0  2778
0.43750  0.31250  0  3  0  2778
0.43750  0.37500  0  3  0  2778
ZONE T= "IEL    37",  I=2, J=2, SOLUTIONTIME=0.20000, DATAPACKING = POINT
0.40625  0.28125  0  4  0  35515
0.40625  0.31250  0  4  0  35515
0.43750  0.28125  0  4  0  35515
0.43750  0.31250  0  4  0  35515
ZONE T= "IEL    38",  I=2, J=2, SOLUTIONTIME=0.20000, DATAPACKING = POINT
0.37500  0.28125  0  4  0  29894
0.37500  0.31250  0  4  0  29894
0.40625  0.28125  0  4  0  29894
0.40625  0.31250  0  4  0  29894
ZONE T= "IEL    39",  I=2, J=2, SOLUTIONTIME=0.20000, DATAPACKING = POINT
0.37500  0.25000  0  4  0  24757
0.37500  0.28125  0  4  0  24757
0.40625  0.25000  0  4  0  24757
0.40625  0.28125  0  4  0  24757
ZONE T= "IEL    40",  I=2, J=2, SOLUTIONTIME=0.20000, DATAPACKING = POINT
0.40625  0.25000  0  4  0  29650
0.40625  0.28125  0  4  0  29650
0.43750  0.25000  0  4  0  29650
0.43750  0.28125  0  4  0  29650
ZONE T= "IEL    41",  I=2, J=2, SOLUTIONTIME=0.20000, DATAPACKING = POINT
0.43750  0.25000  0  3  0  2704
0.43750  0.31250  0  3  0  2704
0.50000  0.25000  0  3  0  2704
0.50000  0.31250  0  3  0  2704
ZONE T= "IEL    42",  I=2, J=2, SOLUTIONTIME=0.20000, DATAPACKING = POINT
0.37500  0.12500  0  2  0  93
0.37500  0.25000  0  2  0  93
0.50000  0.12500  0  2  0  93
0.50000  0.25000  0  2  0  93
ZONE T= "IEL    43",  I=2, J=2, SOLUTIONTIME=0.20000, DATAPACKING = POINT
0.31250  0.18750  0  3  0  906
0.31250  0.25000  0  3  0  906
0.37500  0.18750  0  3  0  906
0.37500  0.25000  0  3  0  906
ZONE T= "IEL    44",  I=2, J=2, SOLUTIONTIME=0.20000, DATAPACKING = POINT
0.25000  0.18750  0  3  1  598
0.25000  0.25000  0  3  1  598
0.31250  0.18750  0  3  1  598
0.31250  0.25000  0  3  1  598
ZONE T= "IEL    45",  I=2, J=2, SOLUTIONTIME=0.20000, DATAPACKING = POINT
0.25000  0.12500  0  3  1  354
0.25000  0.18750  0  3  1  354
0.31250  0.12500  0  3  1  354
0.31250  0.18750  0  3  1  354
ZONE T= "IEL    46",  I=2, J=2, SOLUTIONTIME=0.20000, DATAPACKING = POINT
0.31250  0.12500  0  3  0  564
0.31250  0.18750  0  3  0  564
0.37500  0.12500  0  3  0  564
0.37500  0.18750  0  3  0  564
ZONE T= "IEL    47",  I=2, J=2, SOLUTIONTIME=0.20000, DATAPACKING = POINT
0.31250  0.06250  0  3  0  328
0.31250  0.12500  0  3  0  328
0.37500  0.06250  0  3  0  328
0.37500  0.12500  0  3  0  328
ZONE T= "IEL    48",  I=2, J=2, SOLUTIONTIME=0.20000, DATAPACKING = POINT
0.25000  0.06250  0  3  1  193
0.25000  0.12500  0  3  1  193
0.31250  0.06250  0  3  1  193
0.31250  0.12500  0  3  1  193
ZONE T= "IEL    49",  I=2, J=2, SOLUTIONTIME=0.20000, DATAPACKING = POINT
0.25000  0.00000  0  3  1  94
0.25000  0.06250  0  3  1  94
0.31250  0.00000  0  3  1  94
0.31250  0.06250  0  3  1  94
ZONE T= "IEL    50",  I=2, J=2, SOLUTIONTIME=0.20000, DATAPACKING = POINT
0.31250  0.00000  0  3  0  174
0.31250  0.06250  0  3  0  174
0.37500  0.00000  0  3  0  174
0.37500  0.06250  0  3  0  174
ZONE T= "IEL    51",  I=2, J=2, SOLUTIONTIME=0.20000, DATAPACKING = POINT
0.37500  0.00000  0  2  0  38
0.37500  0.12500  0  2  0  38
0.50000  0.00000  0  2  0  38
0.50000  0.12500  0  2  0  38
ZONE T= "IEL    52",  I=2, J=2, SOLUTIONTIME=0.20000, DATAPACKING = POINT
0.50000  0.00000  1  3  0  783
0.50000  0.06250  1  3  0  783
0.56250  0.00000  1  3  0  783
0.56250  0.06250  1  3  0  783
ZONE T= "IEL    53",  I=2, J=2, SOLUTIONTIME=0.20000, DATAPACKING = POINT
0.56250  0.00000  1  4  0  15404
0.56250  0.03125  1  4  0  15404
0.59375  0.00000  1  4  0  15404
0.59375  0.03125  1  4  0  15404
ZONE T= "IEL    54",  I=2, J=2, SOLUTIONTIME=0.20000, DATAPACKING = POINT
0.59375  0.00000  1  4  1  18919
0.59375  0.03125  1  4  1  18919
0.62500  0.00000  1  4  1  18919
0.62500  0.03125  1  4  1  18919
ZONE T= "IEL    55",  I=2, J=2, SOLUTIONTIME=0.20000, DATAPACKING = POINT
0.59375  0.03125  1  4  1  23224
0.59375  0.06250  1  4  1  23224
0.62500  0.03125  1  4  1  23224
0.62500  0.06250  1  4  1  23224
ZONE T= "IEL    56",  I=2, J=2, SOLUTIONTIME=0.20000, DATAPACKING = POINT
0.56250  0.03125  1  4  0  19114
0.56250  0.06250  1  4  0  19114
0.59375  0.03125  1  4  0  19114
0.59375  0.06250  1  4  0  19114
ZONE T= "IEL    57",  I=2, J=2, SOLUTIONTIME=0.20000, DATAPACKING = POINT
0.56250  0.06250  1  3  0  1773
0.56250  0.12500  1  3  0  1773
0.62500  0.06250  1  3  0  1773
0.62500  0.12500  1  3  0  1773
ZONE T= "IEL    58",  I=2, J=2, SOLUTIONTIME=0.20000, DATAPACKING = POINT
0.53125  0.09375  1  4  0  23657
0.53125  0.12500  1  4  0  23657
0.56250  0.09375  1  4  0  23657
0.56250  0.12500  1  4  0  23657
ZONE T= "IEL    59",  I=2, J=2, SOLUTIONTIME=0.20000, DATAPACKING = POINT
0.53125  0.06250  1  4  0  19310
0.53125  0.09375  1  4  0  19310
0.56250  0.06250  1  4  0  19310
0.56250  0.09375  1  4  0  19310
ZONE T= "IEL    60",  I=2, J=2, SOLUTIONTIME=0.20000, DATAPACKING = POINT
0.50000  0.06250  1  4  0  15757
0.50000  0.09375  1  4  0  15757
0.53125  0.06250  1  4  0  15757
0.53125  0.09375  1  4  0  15757
ZONE T= "IEL    61",  I=2, J=2, SOLUTIONTIME=0.20000, DATAPACKING = POINT
0.50000  0.09375  1  4  0  19507
0.50000  0.12500  1  4  0  19507
0.53125  0.09375  1  4  0  19507
0.53125  0.12500  1  4  0  19507
ZONE T= "IEL    62",  I=2, J=2, SOLUTIONTIME=0.20000, DATAPACKING = POINT
0.50000  0.12500  1  3  0  1833
0.50000  0.18750  1  3  0  1833
0.56250  0.12500  1  3  0  1833
0.56250  0.18750  1  3  0  1833
ZONE T= "IEL    63",  I=2, J=2, SOLUTIONTIME=0.20000, DATAPACKING = POINT
0.50000  0.18750  1  3  0  2631
0.50000  0.25000  1  3  0  2631
0.56250  0.18750  1  3  0  2631
0.56250  0.25000  1  3  0  2631
ZONE T= "IEL    64",  I=2, J=2, SOLUTIONTIME=0.20000, DATAPACKING = POINT
0.56250  0.18750  1  3  0  3573
0.56250  0.25000  1  3  0  3573
0.62500  0.18750  1  3  0  3573
0.62500  0.25000  1  3  0  3573
ZONE T= "IEL    65",  I=2, J=2, SOLUTIONTIME=0.20000, DATAPACKING = POINT
0.56250  0.12500  1  3  0  2559
0.56250  0.18750  1  3  0  2559
0.62500  0.12500  1  3  0  2559
0.62500  0.18750  1  3  0  2559
ZONE T= "IEL    66",  I=2, J=2, SOLUTIONTIME=0.20000, DATAPACKING = POINT
0.62500  0.12500  1  2  0  302
0.62500  0.25000  1  2  0  302
0.75000  0.12500  1  2  0  302
0.75000  0.25000  1  2  0  302
ZONE T= "IEL    67",  I=2, J=2, SOLUTIONTIME=0.20000, DATAPACKING = POINT
0.62500  0.00000  1  2  1  155
0.62500  0.12500  1  2  1  155
0.75000  0.00000  1  2  1  155
0.75000  0.12500  1  2  1  155
ZONE T= "IEL    68",  I=2, J=2, SOLUTIONTIME=0.20000, DATAPACKING = POINT
0.75000  0.00000  1  1  1  29
0.75000  0.25000  1  1  1  29
1.00000  0.00000  1  1  1  29
1.00000  0.25000  1  1  1  29
ZONE T= "IEL    69",  I=2, J=2, SOLUTIONTIME=0.20000, DATAPACKING = POINT
0.75000  0.25000  1  4  0  146074
0.75000  0.28125  1  4  0  146074
0.78125  0.25000  1  4  0  146074
0.78125  0.28125  1  4  0  146074
ZONE T= "IEL    70",  I=2, J=2, SOLUTIONTIME=0.20000, DATAPACKING = POINT
0.78125  0.25000  1  4  0  164455
0.78125  0.28125  1  4  0  164455
0.81250  0.25000  1  4  0  164455
0.81250  0.28125  1  4  0  164455
ZONE T= "IEL    71",  I=2, J=2, SOLUTIONTIME=0.20000, DATAPACKING = POINT
0.78125  0.28125  1  4  0  185140
0.78125  0.31250  1  4  0  185140
0.81250  0.28125  1  4  0  185140
0.81250  0.31250  1  4  0  185140
ZONE T= "IEL    72",  I=2, J=2, SOLUTIONTIME=0.20000, DATAPACKING = POINT
0.75000  0.28125  1  4  0  165029
0.75000  0.31250  1  4  0  165029
0.78125  0.28125  1  4  0  165029
0.78125  0.31250  1  4  0  165029
ZONE T= "IEL    73",  I=2, J=2, SOLUTIONTIME=0.20000, DATAPACKING = POINT
0.75000  0.31250  1  4  0  185749
0.75000  0.34375  1  4  0  185749
0.78125  0.31250  1  4  0  185749
0.78125  0.34375  1  4  0  185749
ZONE T= "IEL    74",  I=2, J=2, SOLUTIONTIME=0.20000, DATAPACKING = POINT
0.75000  0.34375  1  4  0  208339
0.75000  0.37500  1  4  0  208339
0.78125  0.34375  1  4  0  208339
0.78125  0.37500  1  4  0  208339
ZONE T= "IEL    75",  I=2, J=2, SOLUTIONTIME=0.20000, DATAPACKING = POINT
0.78125  0.34375  1  4  0  232225
0.78125  0.37500  1  4  0  232225
0.81250  0.34375  1  4  0  232225
0.81250  0.37500  1  4  0  232225
ZONE T= "IEL    76",  I=2, J=2, SOLUTIONTIME=0.20000, DATAPACKING = POINT
0.78125  0.31250  1  4  0  207694
0.78125  0.34375  1  4  0  207694
0.81250  0.31250  1  4  0  207694
0.81250  0.34375  1  4  0  207694
ZONE T= "IEL    77",  I=2, J=2, SOLUTIONTIME=0.20000, DATAPACKING = POINT
0.81250  0.31250  1  3  0  16113
0.81250  0.37500  1  3  0  16113
0.87500  0.31250  1  3  0  16113
0.87500  0.37500  1  3  0  16113
ZONE T= "IEL    78",  I=2, J=2, SOLUTIONTIME=0.20000, DATAPACKING = POINT
0.81250  0.25000  1  3  0  12883
0.81250  0.31250  1  3  0  12883
0.87500  0.25000  1  3  0  12883
0.87500  0.31250  1  3  0  12883
ZONE T= "IEL    79",  I=2, J=2, SOLUTIONTIME=0.20000, DATAPACKING = POINT
0.87500  0.25000  1  2  0  1227
0.87500  0.37500  1  2  0  1227
1.00000  0.25000  1  2  0  1227
1.00000  0.37500  1  2  0  1227
ZONE T= "IEL    80",  I=2, J=2, SOLUTIONTIME=0.20000, DATAPACKING = POINT
0.87500  0.37500  1  3  0  24093
0.87500  0.43750  1  3  0  24093
0.93750  0.37500  1  3  0  24093
0.93750  0.43750  1  3  0  24093
ZONE T= "IEL    81",  I=2, J=2, SOLUTIONTIME=0.20000, DATAPACKING = POINT
0.93750  0.37500  1  3  0  28923
0.93750  0.43750  1  3  0  28923
1.00000  0.37500  1  3  0  28923
1.00000  0.43750  1  3  0  28923
ZONE T= "IEL    82",  I=2, J=2, SOLUTIONTIME=0.20000, DATAPACKING = POINT
0.93750  0.43750  1  3  0  34719
0.93750  0.50000  1  3  0  34719
1.00000  0.43750  1  3  0  34719
1.00000  0.50000  1  3  0  34719
ZONE T= "IEL    83",  I=2, J=2, SOLUTIONTIME=0.20000, DATAPACKING = POINT
0.87500  0.43750  1  3  0  29164
0.87500  0.50000  1  3  0  29164
0.93750  0.43750  1  3  0  29164
0.93750  0.50000  1  3  0  29164
ZONE T= "IEL    84",  I=2, J=2, SOLUTIONTIME=0.20000, DATAPACKING = POINT
0.84375  0.46875  1  4  0  425507
0.84375  0.50000  1  4  0  425507
0.87500  0.46875  1  4  0  425507
0.87500  0.50000  1  4  0  425507
ZONE T= "IEL    85",  I=2, J=2, SOLUTIONTIME=0.20000, DATAPACKING = POINT
0.81250  0.46875  1  4  0  387644
0.81250  0.50000  1  4  0  387644
0.84375  0.46875  1  4  0  387644
0.84375  0.50000  1  4  0  387644
ZONE T= "IEL    86",  I=2, J=2, SOLUTIONTIME=0.20000, DATAPACKING = POINT
0.81250  0.43750  1  4  0  351545
0.81250  0.46875  1  4  0  351545
0.84375  0.43750  1  4  0  351545
0.84375  0.46875  1  4  0  351545
ZONE T= "IEL    87",  I=2, J=2, SOLUTIONTIME=0.20000, DATAPACKING = POINT
0.84375  0.43750  1  4  0  386764
0.84375  0.46875  1  4  0  386764
0.87500  0.43750  1  4  0  386764
0.87500  0.46875  1  4  0  386764
ZONE T= "IEL    88",  I=2, J=2, SOLUTIONTIME=0.20000, DATAPACKING = POINT
0.81250  0.37500  1  3  0  19903
0.81250  0.43750  1  3  0  19903
0.87500  0.37500  1  3  0  19903
0.87500  0.43750  1  3  0  19903
ZONE T= "IEL    89",  I=2, J=2, SOLUTIONTIME=0.20000, DATAPACKING = POINT
0.78125  0.40625  1  4  0  287665
0.78125  0.43750  1  4  0  287665
0.81250  0.40625  1  4  0  287665
0.81250  0.43750  1  4  0  287665
ZONE T= "IEL    90",  I=2, J=2, SOLUTIONTIME=0.20000, DATAPACKING = POINT
0.78125  0.37500  1  4  0  258844
0.78125  0.40625  1  4  0  258844
0.81250  0.37500  1  4  0  258844
0.81250  0.40625  1  4  0  258844
ZONE T= "IEL    91",  I=2, J=2, SOLUTIONTIME=0.20000, DATAPACKING = POINT
0.75000  0.37500  1  4  0  232907
0.75000  0.40625  1  4  0  232907
0.78125  0.37500  1  4  0  232907
0.78125  0.40625  1  4  0  232907
ZONE T= "IEL    92",  I=2, J=2, SOLUTIONTIME=0.20000, DATAPACKING = POINT
0.75000  0.40625  1  4  0  259564
0.75000  0.43750  1  4  0  259564
0.78125  0.40625  1  4  0  259564
0.78125  0.43750  1  4  0  259564
ZONE T= "IEL    93",  I=2, J=2, SOLUTIONTIME=0.20000, DATAPACKING = POINT
0.75000  0.43750  1  3  0  20103
0.75000  0.50000  1  3  0  20103
0.81250  0.43750  1  3  0  20103
0.81250  0.50000  1  3  0  20103
ZONE T= "IEL    94",  I=2, J=2, SOLUTIONTIME=0.20000, DATAPACKING = POINT
0.62500  0.37500  1  2  1  863
0.62500  0.50000  1  2  1  863
0.75000  0.37500  1  2  1  863
0.75000  0.50000  1  2  1  863
ZONE T= "IEL    95",  I=2, J=2, SOLUTIONTIME=0.20000, DATAPACKING = POINT
0.68750  0.31250  1  3  0  10443
0.68750  0.37500  1  3  0  10443
0.75000  0.31250  1  3  0  10443
0.75000  0.37500  1  3  0  10443
ZONE T= "IEL    96",  I=2, J=2, SOLUTIONTIME=0.20000, DATAPACKING = POINT
0.68750  0.25000  1  3  0  8131
0.68750  0.31250  1  3  0  8131
0.75000  0.25000  1  3  0  8131
0.75000  0.31250  1  3  0  8131
ZONE T= "IEL    97",  I=2, J=2, SOLUTIONTIME=0.20000, DATAPACKING = POINT
0.62500  0.25000  1  3  1  6331
0.62500  0.31250  1  3  1  6331
0.68750  0.25000  1  3  1  6331
0.68750  0.31250  1  3  1  6331
ZONE T= "IEL    98",  I=2, J=2, SOLUTIONTIME=0.20000, DATAPACKING = POINT
0.62500  0.31250  1  3  1  8259
0.62500  0.37500  1  3  1  8259
0.68750  0.31250  1  3  1  8259
0.68750  0.37500  1  3  1  8259
ZONE T= "IEL    99",  I=2, J=2, SOLUTIONTIME=0.20000, DATAPACKING = POINT
0.56250  0.31250  1  3  1  6444
0.56250  0.37500  1  3  1  6444
0.62500  0.31250  1  3  1  6444
0.62500  0.37500  1  3  1  6444
ZONE T= "IEL   100",  I=2, J=2, SOLUTIONTIME=0.20000, DATAPACKING = POINT
0.56250  0.25000  1  3  1  4854
0.56250  0.31250  1  3  1  4854
0.62500  0.25000  1  3  1  4854
0.62500  0.31250  1  3  1  4854
ZONE T= "IEL   101",  I=2, J=2, SOLUTIONTIME=0.20000, DATAPACKING = POINT
0.50000  0.25000  1  3  1  3658
0.50000  0.31250  1  3  1  3658
0.56250  0.25000  1  3  1  3658
0.56250  0.31250  1  3  1  3658
ZONE T= "IEL   102",  I=2, J=2, SOLUTIONTIME=0.20000, DATAPACKING = POINT
0.50000  0.31250  1  3  1  4953
0.50000  0.37500  1  3  1  4953
0.56250  0.31250  1  3  1  4953
0.56250  0.37500  1  3  1  4953
ZONE T= "IEL   103",  I=2, J=2, SOLUTIONTIME=0.20000, DATAPACKING = POINT
0.50000  0.37500  1  2  0  563
0.50000  0.50000  1  2  0  563
0.62500  0.37500  1  2  0  563
0.62500  0.50000  1  2  0  563
ZONE T= "IEL   104",  I=2, J=2, SOLUTIONTIME=0.20000, DATAPACKING = POINT
0.50000  0.50000  2  3  0  10881
0.50000  0.56250  2  3  0  10881
0.56250  0.50000  2  3  0  10881
0.56250  0.56250  2  3  0  10881
ZONE T= "IEL   105",  I=2, J=2, SOLUTIONTIME=0.20000, DATAPACKING = POINT
0.56250  0.50000  2  4  1  189424
0.56250  0.53125  2  4  1  189424
0.59375  0.50000  2  4  1  189424
0.59375  0.53125  2  4  1  189424
ZONE T= "IEL   106",  I=2, J=2, SOLUTIONTIME=0.20000, DATAPACKING = POINT
0.59375  0.50000  2  4  1  211579
0.59375  0.53125  2  4  1  211579
0.62500  0.50000  2  4  1  211579
0.62500  0.53125  2  4  1  211579
ZONE T= "IEL   107",  I=2, J=2, SOLUTIONTIME=0.20000, DATAPACKING = POINT
0.59375  0.53125  2  4  1  236332
0.59375  0.56250  2  4  1  236332
0.62500  0.53125  2  4  1  236332
0.62500  0.56250  2  4  1  236332
ZONE T= "IEL   108",  I=2, J=2, SOLUTIONTIME=0.20000, DATAPACKING = POINT
0.56250  0.53125  2  4  1  212230
0.56250  0.56250  2  4  1  212230
0.59375  0.53125  2  4  1  212230
0.59375  0.56250  2  4  1  212230
ZONE T= "IEL   109",  I=2, J=2, SOLUTIONTIME=0.20000, DATAPACKING = POINT
0.56250  0.56250  2  3  1  16839
0.56250  0.62500  2  3  1  16839
0.62500  0.56250  2  3  1  16839
0.62500  0.62500  2  3  1  16839
ZONE T= "IEL   110",  I=2, J=2, SOLUTIONTIME=0.20000, DATAPACKING = POINT
0.53125  0.59375  2  4  1  237709
0.53125  0.62500  2  4  1  237709
0.56250  0.59375  2  4  1  237709
0.56250  0.62500  2  4  1  237709
ZONE T= "IEL   111",  I=2, J=2, SOLUTIONTIME=0.20000, DATAPACKING = POINT
0.53125  0.56250  2  4  1  212882
0.53125  0.59375  2  4  1  212882
0.56250  0.56250  2  4  1  212882
0.56250  0.59375  2  4  1  212882
ZONE T= "IEL   112",  I=2, J=2, SOLUTIONTIME=0.20000, DATAPACKING = POINT
0.50000  0.56250  2  4  0  190657
0.50000  0.59375  2  4  0  190657
0.53125  0.56250  2  4  0  190657
0.53125  0.59375  2  4  0  190657
ZONE T= "IEL   113",  I=2, J=2, SOLUTIONTIME=0.20000, DATAPACKING = POINT
0.50000  0.59375  2  4  0  213535
0.50000  0.62500  2  4  0  213535
0.53125  0.59375  2  4  0  213535
0.53125  0.62500  2  4  0  213535
ZONE T= "IEL   114",  I=2, J=2, SOLUTIONTIME=0.20000, DATAPACKING = POINT
0.50000  0.62500  2  3  0  17023
0.50000  0.68750  2  3  0  17023
0.56250  0.62500  2  3  0  17023
0.56250  0.68750  2  3  0  17023
ZONE T= "IEL   115",  I=2, J=2, SOLUTIONTIME=0.20000, DATAPACKING = POINT
0.50000  0.68750  2  3  0  20913
0.50000  0.75000  2  3  0  20913
0.56250  0.68750  2  3  0  20913
0.56250  0.75000  2  3  0  20913
ZONE T= "IEL   116",  I=2, J=2, SOLUTIONTIME=0.20000, DATAPACKING = POINT
0.56250  0.68750  2  3  1  25203
0.56250  0.75000  2  3  1  25203
0.62500  0.68750  2  3  1  25203
0.62500  0.75000  2  3  1  25203
ZONE T= "IEL   117",  I=2, J=2, SOLUTIONTIME=0.20000, DATAPACKING = POINT
0.56250  0.62500  2  3  1  20709
0.56250  0.68750  2  3  1  20709
0.62500  0.62500  2  3  1  20709
0.62500  0.68750  2  3  1  20709
ZONE T= "IEL   118",  I=2, J=2, SOLUTIONTIME=0.20000, DATAPACKING = POINT
0.62500  0.62500  2  2  1  1955
0.62500  0.75000  2  2  1  1955
0.75000  0.62500  2  2  1  1955
0.75000  0.75000  2  2  1  1955
ZONE T= "IEL   119",  I=2, J=2, SOLUTIONTIME=0.20000, DATAPACKING = POINT
0.62500  0.50000  2  2  1  1328
0.62500  0.62500  2  2  1  1328
0.75000  0.50000  2  2  1  1328
0.75000  0.62500  2  2  1  1328
ZONE T= "IEL   120",  I=2, J=2, SOLUTIONTIME=0.20000, DATAPACKING = POINT
0.75000  0.50000  2  1  1  172
0.75000  0.75000  2  1  1  172
1.00000  0.50000  2  1  1  172
1.00000  0.75000  2  1  1  172
ZONE T= "IEL   121",  I=2, J=2, SOLUTIONTIME=0.20000, DATAPACKING = POINT
0.75000  0.75000  2  4  1  725414
0.75000  0.78125  2  4  1  725414
0.78125  0.75000  2  4  1  725414
0.78125  0.78125  2  4  1  725414
ZONE T= "IEL   122",  I=2, J=2, SOLUTIONTIME=0.20000, DATAPACKING = POINT
0.78125  0.75000  2  4  1  785635
0.78125  0.78125  2  4  1  785635
0.81250  0.75000  2  4  1  785635
0.81250  0.78125  2  4  1  785635
ZONE T= "IEL   123",  I=2, J=2, SOLUTIONTIME=0.20000, DATAPACKING = POINT
0.78125  0.78125  2  4  1  850864
0.78125  0.81250  2  4  1  850864
0.81250  0.78125  2  4  1  850864
0.81250  0.81250  2  4  1  850864
ZONE T= "IEL   124",  I=2, J=2, SOLUTIONTIME=0.20000, DATAPACKING = POINT
0.75000  0.78125  2  4  1  786889
0.75000  0.81250  2  4  1  786889
0.78125  0.78125  2  4  1  786889
0.78125  0.81250  2  4  1  786889
ZONE T= "IEL   125",  I=2, J=2, SOLUTIONTIME=0.20000, DATAPACKING = POINT
0.75000  0.81250  2  4  1  852169
0.75000  0.84375  2  4  1  852169
0.78125  0.81250  2  4  1  852169
0.78125  0.84375  2  4  1  852169
ZONE T= "IEL   126",  I=2, J=2, SOLUTIONTIME=0.20000, DATAPACKING = POINT
0.75000  0.84375  2  4  1  921407
0.75000  0.87500  2  4  1  921407
0.78125  0.84375  2  4  1  921407
0.78125  0.87500  2  4  1  921407
ZONE T= "IEL   127",  I=2, J=2, SOLUTIONTIME=0.20000, DATAPACKING = POINT
0.78125  0.84375  2  4  1  993349
0.78125  0.87500  2  4  1  993349
0.81250  0.84375  2  4  1  993349
0.81250  0.87500  2  4  1  993349
ZONE T= "IEL   128",  I=2, J=2, SOLUTIONTIME=0.20000, DATAPACKING = POINT
0.78125  0.81250  2  4  1  920050
0.78125  0.84375  2  4  1  920050
0.81250  0.81250  2  4  1  920050
0.81250  0.84375  2  4  1  920050
ZONE T= "IEL   129",  I=2, J=2, SOLUTIONTIME=0.20000, DATAPACKING = POINT
0.81250  0.81250  2  3  1  67531
0.81250  0.87500  2  3  1  67531
0.87500  0.81250  2  3  1  67531
0.87500  0.87500  2  3  1  67531
ZONE T= "IEL   130",  I=2, J=2, SOLUTIONTIME=0.20000, DATAPACKING = POINT
0.81250  0.75000  2  3  1  57973
0.81250  0.81250  2  3  1  57973
0.87500  0.75000  2  3  1  57973
0.87500  0.81250  2  3  1  57973
ZONE T= "IEL   131",  I=2, J=2, SOLUTIONTIME=0.20000, DATAPACKING = POINT
0.87500  0.75000  2  2  0  4952
0.87500  0.87500  2  2  0  4952
1.00000  0.75000  2  2  0  4952
1.00000  0.87500  2  2  0  4952
ZONE T= "IEL   132",  I=2, J=2, SOLUTIONTIME=0.20000, DATAPACKING = POINT
0.87500  0.87500  2  3  0  89679
0.87500  0.93750  2  3  0  89679
0.93750  0.87500  2  3  0  89679
0.93750  0.93750  2  3  0  89679
ZONE T= "IEL   133",  I=2, J=2, SOLUTIONTIME=0.20000, DATAPACKING = POINT
0.93750  0.87500  2  3  0  102381
0.93750  0.93750  2  3  0  102381
1.00000  0.87500  2  3  0  102381
1.00000  0.93750  2  3  0  102381
ZONE T= "IEL   134",  I=2, J=2, SOLUTIONTIME=0.20000, DATAPACKING = POINT
0.93750  0.93750  2  3  0  116889
0.93750  1.00000  2  3  0  116889
1.00000  0.93750  2  3  0  116889
1.00000  1.00000  2  3  0  116889
ZONE T= "IEL   135",  I=2, J=2, SOLUTIONTIME=0.20000, DATAPACKING = POINT
0.87500  0.93750  2  3  0  102834
0.87500  1.00000  2  3  0  102834
0.93750  0.93750  2  3  0  102834
0.93750  1.00000  2  3  0  102834
ZONE T= "IEL   136",  I=2, J=2, SOLUTIONTIME=0.20000, DATAPACKING = POINT
0.84375  0.96875  2  4  0  1525135
0.84375  1.00000  2  4  0  1525135
0.87500  0.96875  2  4  0  1525135
0.87500  1.00000  2  4  0  1525135
ZONE T= "IEL   137",  I=2, J=2, SOLUTIONTIME=0.20000, DATAPACKING = POINT
0.81250  0.96875  2  4  1  1425520
0.81250  1.00000  2  4  1  1425520
0.84375  0.96875  2  4  1  1425520
0.84375  1.00000  2  4  1  1425520
ZONE T= "IEL   138",  I=2, J=2, SOLUTIONTIME=0.20000, DATAPACKING = POINT
0.81250  0.93750  2  4  1  1329269
0.81250  0.96875  2  4  1  1329269
0.84375  0.93750  2  4  1  1329269
0.84375  0.96875  2  4  1  1329269
ZONE T= "IEL   139",  I=2, J=2, SOLUTIONTIME=0.20000, DATAPACKING = POINT
0.84375  0.93750  2  4  0  1423832
0.84375  0.96875  2  4  0  1423832
0.87500  0.93750  2  4  0  1423832
0.87500  0.96875  2  4  0  1423832
ZONE T= "IEL   140",  I=2, J=2, SOLUTIONTIME=0.20000, DATAPACKING = POINT
0.81250  0.87500  2  3  1  78213
0.81250  0.93750  2  3  1  78213
0.87500  0.87500  2  3  1  78213
0.87500  0.93750  2  3  1  78213
ZONE T= "IEL   141",  I=2, J=2, SOLUTIONTIME=0.20000, DATAPACKING = POINT
0.78125  0.90625  2  4  1  1152925
0.78125  0.93750  2  4  1  1152925
0.81250  0.90625  2  4  1  1152925
0.81250  0.93750  2  4  1  1152925
ZONE T= "IEL   142",  I=2, J=2, SOLUTIONTIME=0.20000, DATAPACKING = POINT
0.78125  0.87500  2  4  1  1070920
0.78125  0.90625  2  4  1  1070920
0.81250  0.87500  2  4  1  1070920
0.81250  0.90625  2  4  1  1070920
ZONE T= "IEL   143",  I=2, J=2, SOLUTIONTIME=0.20000, DATAPACKING = POINT
0.75000  0.87500  2  4  1  994759
0.75000  0.90625  2  4  1  994759
0.78125  0.87500  2  4  1  994759
0.78125  0.90625  2  4  1  994759
ZONE T= "IEL   144",  I=2, J=2, SOLUTIONTIME=0.20000, DATAPACKING = POINT
0.75000  0.90625  2  4  1  1072384
0.75000  0.93750  2  4  1  1072384
0.78125  0.90625  2  4  1  1072384
0.78125  0.93750  2  4  1  1072384
ZONE T= "IEL   145",  I=2, J=2, SOLUTIONTIME=0.20000, DATAPACKING = POINT
0.75000  0.93750  2  3  1  78609
0.75000  1.00000  2  3  1  78609
0.81250  0.93750  2  3  1  78609
0.81250  1.00000  2  3  1  78609
ZONE T= "IEL   146",  I=2, J=2, SOLUTIONTIME=0.20000, DATAPACKING = POINT